ITEM: TIMESTEP
0
ITEM: NUMBER OF ATOMS
750
ITEM: BOX BOUNDS ff pp pp
0.0000000000000000e+00 1.0000000000000000e+00
0.0000000000000000e+00 2.9999999999999999e-01
0.0000000000000000e+00 2.0000000000000000e-02
ITEM: ATOMS id type x y z c_it_atom c_rho_peratom 
1 1 0.01 0.01 0 1 1.226 
2 1 0.03 0.01 0 1 1.226 
3 1 0.05 0.01 0 1 1.226 
4 1 0.07 0.01 0 1 1.226 
5 1 0.09 0.01 0 1 1.226 
6 1 0.11 0.01 0 1 1.226 
7 1 0.13 0.01 0 1 1.226 
8 1 0.15 0.01 0 1 1.226 
9 1 0.17 0.01 0 1 1.226 
10 1 0.19 0.01 0 1 1.226 
11 1 0.21 0.01 0 1 1.226 
12 1 0.23 0.01 0 1 1.226 
13 1 0.25 0.01 0 1 1.226 
14 1 0.27 0.01 0 1 1.226 
15 1 0.29 0.01 0 1 1.226 
16 1 0.31 0.01 0 1 1.226 
17 1 0.33 0.01 0 1 1.226 
18 1 0.35 0.01 0 1 1.226 
19 1 0.37 0.01 0 1 1.226 
20 1 0.39 0.01 0 1 1.226 
21 1 0.41 0.01 0 1 1.226 
22 1 0.43 0.01 0 1 1.226 
23 1 0.45 0.01 0 1 1.226 
24 1 0.47 0.01 0 1 1.226 
25 1 0.49 0.01 0 1 1.226 
26 2 0.51 0.01 0 2 1000 
27 2 0.53 0.01 0 2 1000 
28 2 0.55 0.01 0 2 1000 
29 2 0.57 0.01 0 2 1000 
30 2 0.59 0.01 0 2 1000 
31 2 0.61 0.01 0 2 1000 
32 2 0.63 0.01 0 2 1000 
33 2 0.65 0.01 0 2 1000 
34 2 0.67 0.01 0 2 1000 
35 2 0.69 0.01 0 2 1000 
36 2 0.71 0.01 0 2 1000 
37 2 0.73 0.01 0 2 1000 
38 2 0.75 0.01 0 2 1000 
39 2 0.77 0.01 0 2 1000 
40 2 0.79 0.01 0 2 1000 
41 2 0.81 0.01 0 2 1000 
42 2 0.83 0.01 0 2 1000 
43 2 0.85 0.01 0 2 1000 
44 2 0.87 0.01 0 2 1000 
45 2 0.89 0.01 0 2 1000 
46 2 0.91 0.01 0 2 1000 
47 2 0.93 0.01 0 2 1000 
48 2 0.95 0.01 0 2 1000 
49 2 0.97 0.01 0 2 1000 
50 2 0.99 0.01 0 2 1000 
51 1 0.01 0.03 0 1 1.226 
52 1 0.03 0.03 0 1 1.226 
101 1 0.01 0.05 0 1 1.226 
102 1 0.03 0.05 0 1 1.226 
53 1 0.05 0.03 0 1 1.226 
103 1 0.05 0.05 0 1 1.226 
54 1 0.07 0.03 0 1 1.226 
55 1 0.09 0.03 0 1 1.226 
104 1 0.07 0.05 0 1 1.226 
105 1 0.09 0.05 0 1 1.226 
56 1 0.11 0.03 0 1 1.226 
106 1 0.11 0.05 0 1 1.226 
57 1 0.13 0.03 0 1 1.226 
58 1 0.15 0.03 0 1 1.226 
107 1 0.13 0.05 0 1 1.226 
108 1 0.15 0.05 0 1 1.226 
59 1 0.17 0.03 0 1 1.226 
109 1 0.17 0.05 0 1 1.226 
60 1 0.19 0.03 0 1 1.226 
61 1 0.21 0.03 0 1 1.226 
110 1 0.19 0.05 0 1 1.226 
111 1 0.21 0.05 0 1 1.226 
62 1 0.23 0.03 0 1 1.226 
112 1 0.23 0.05 0 1 1.226 
63 1 0.25 0.03 0 1 1.226 
64 1 0.27 0.03 0 1 1.226 
113 1 0.25 0.05 0 1 1.226 
114 1 0.27 0.05 0 1 1.226 
65 1 0.29 0.03 0 1 1.226 
115 1 0.29 0.05 0 1 1.226 
66 1 0.31 0.03 0 1 1.226 
67 1 0.33 0.03 0 1 1.226 
116 1 0.31 0.05 0 1 1.226 
117 1 0.33 0.05 0 1 1.226 
68 1 0.35 0.03 0 1 1.226 
118 1 0.35 0.05 0 1 1.226 
69 1 0.37 0.03 0 1 1.226 
70 1 0.39 0.03 0 1 1.226 
119 1 0.37 0.05 0 1 1.226 
120 1 0.39 0.05 0 1 1.226 
71 1 0.41 0.03 0 1 1.226 
121 1 0.41 0.05 0 1 1.226 
72 1 0.43 0.03 0 1 1.226 
73 1 0.45 0.03 0 1 1.226 
122 1 0.43 0.05 0 1 1.226 
123 1 0.45 0.05 0 1 1.226 
74 1 0.47 0.03 0 1 1.226 
124 1 0.47 0.05 0 1 1.226 
75 1 0.49 0.03 0 1 1.226 
76 2 0.51 0.03 0 2 1000 
125 1 0.49 0.05 0 1 1.226 
126 2 0.51 0.05 0 2 1000 
77 2 0.53 0.03 0 2 1000 
127 2 0.53 0.05 0 2 1000 
78 2 0.55 0.03 0 2 1000 
79 2 0.57 0.03 0 2 1000 
128 2 0.55 0.05 0 2 1000 
129 2 0.57 0.05 0 2 1000 
80 2 0.59 0.03 0 2 1000 
130 2 0.59 0.05 0 2 1000 
81 2 0.61 0.03 0 2 1000 
82 2 0.63 0.03 0 2 1000 
131 2 0.61 0.05 0 2 1000 
132 2 0.63 0.05 0 2 1000 
83 2 0.65 0.03 0 2 1000 
133 2 0.65 0.05 0 2 1000 
84 2 0.67 0.03 0 2 1000 
85 2 0.69 0.03 0 2 1000 
134 2 0.67 0.05 0 2 1000 
135 2 0.69 0.05 0 2 1000 
86 2 0.71 0.03 0 2 1000 
136 2 0.71 0.05 0 2 1000 
87 2 0.73 0.03 0 2 1000 
88 2 0.75 0.03 0 2 1000 
137 2 0.73 0.05 0 2 1000 
138 2 0.75 0.05 0 2 1000 
89 2 0.77 0.03 0 2 1000 
139 2 0.77 0.05 0 2 1000 
90 2 0.79 0.03 0 2 1000 
91 2 0.81 0.03 0 2 1000 
140 2 0.79 0.05 0 2 1000 
141 2 0.81 0.05 0 2 1000 
92 2 0.83 0.03 0 2 1000 
142 2 0.83 0.05 0 2 1000 
93 2 0.85 0.03 0 2 1000 
94 2 0.87 0.03 0 2 1000 
143 2 0.85 0.05 0 2 1000 
144 2 0.87 0.05 0 2 1000 
95 2 0.89 0.03 0 2 1000 
145 2 0.89 0.05 0 2 1000 
96 2 0.91 0.03 0 2 1000 
97 2 0.93 0.03 0 2 1000 
146 2 0.91 0.05 0 2 1000 
147 2 0.93 0.05 0 2 1000 
98 2 0.95 0.03 0 2 1000 
148 2 0.95 0.05 0 2 1000 
99 2 0.97 0.03 0 2 1000 
100 2 0.99 0.03 0 2 1000 
149 2 0.97 0.05 0 2 1000 
150 2 0.99 0.05 0 2 1000 
151 1 0.01 0.07 0 1 1.226 
152 1 0.03 0.07 0 1 1.226 
153 1 0.05 0.07 0 1 1.226 
154 1 0.07 0.07 0 1 1.226 
155 1 0.09 0.07 0 1 1.226 
156 1 0.11 0.07 0 1 1.226 
157 1 0.13 0.07 0 1 1.226 
158 1 0.15 0.07 0 1 1.226 
159 1 0.17 0.07 0 1 1.226 
160 1 0.19 0.07 0 1 1.226 
161 1 0.21 0.07 0 1 1.226 
162 1 0.23 0.07 0 1 1.226 
163 1 0.25 0.07 0 1 1.226 
164 1 0.27 0.07 0 1 1.226 
165 1 0.29 0.07 0 1 1.226 
166 1 0.31 0.07 0 1 1.226 
167 1 0.33 0.07 0 1 1.226 
168 1 0.35 0.07 0 1 1.226 
169 1 0.37 0.07 0 1 1.226 
170 1 0.39 0.07 0 1 1.226 
171 1 0.41 0.07 0 1 1.226 
172 1 0.43 0.07 0 1 1.226 
173 1 0.45 0.07 0 1 1.226 
174 1 0.47 0.07 0 1 1.226 
175 1 0.49 0.07 0 1 1.226 
176 2 0.51 0.07 0 2 1000 
177 2 0.53 0.07 0 2 1000 
178 2 0.55 0.07 0 2 1000 
179 2 0.57 0.07 0 2 1000 
180 2 0.59 0.07 0 2 1000 
181 2 0.61 0.07 0 2 1000 
182 2 0.63 0.07 0 2 1000 
183 2 0.65 0.07 0 2 1000 
184 2 0.67 0.07 0 2 1000 
185 2 0.69 0.07 0 2 1000 
186 2 0.71 0.07 0 2 1000 
187 2 0.73 0.07 0 2 1000 
188 2 0.75 0.07 0 2 1000 
189 2 0.77 0.07 0 2 1000 
190 2 0.79 0.07 0 2 1000 
191 2 0.81 0.07 0 2 1000 
192 2 0.83 0.07 0 2 1000 
193 2 0.85 0.07 0 2 1000 
194 2 0.87 0.07 0 2 1000 
195 2 0.89 0.07 0 2 1000 
196 2 0.91 0.07 0 2 1000 
197 2 0.93 0.07 0 2 1000 
198 2 0.95 0.07 0 2 1000 
199 2 0.97 0.07 0 2 1000 
200 2 0.99 0.07 0 2 1000 
201 1 0.01 0.09 0 1 1.226 
202 1 0.03 0.09 0 1 1.226 
251 1 0.01 0.11 0 1 1.226 
252 1 0.03 0.11 0 1 1.226 
203 1 0.05 0.09 0 1 1.226 
253 1 0.05 0.11 0 1 1.226 
204 1 0.07 0.09 0 1 1.226 
205 1 0.09 0.09 0 1 1.226 
254 1 0.07 0.11 0 1 1.226 
255 1 0.09 0.11 0 1 1.226 
206 1 0.11 0.09 0 1 1.226 
256 1 0.11 0.11 0 1 1.226 
207 1 0.13 0.09 0 1 1.226 
208 1 0.15 0.09 0 1 1.226 
257 1 0.13 0.11 0 1 1.226 
258 1 0.15 0.11 0 1 1.226 
209 1 0.17 0.09 0 1 1.226 
259 1 0.17 0.11 0 1 1.226 
210 1 0.19 0.09 0 1 1.226 
211 1 0.21 0.09 0 1 1.226 
260 1 0.19 0.11 0 1 1.226 
261 1 0.21 0.11 0 1 1.226 
212 1 0.23 0.09 0 1 1.226 
262 1 0.23 0.11 0 1 1.226 
213 1 0.25 0.09 0 1 1.226 
214 1 0.27 0.09 0 1 1.226 
263 1 0.25 0.11 0 1 1.226 
264 1 0.27 0.11 0 1 1.226 
215 1 0.29 0.09 0 1 1.226 
265 1 0.29 0.11 0 1 1.226 
216 1 0.31 0.09 0 1 1.226 
217 1 0.33 0.09 0 1 1.226 
266 1 0.31 0.11 0 1 1.226 
267 1 0.33 0.11 0 1 1.226 
218 1 0.35 0.09 0 1 1.226 
268 1 0.35 0.11 0 1 1.226 
219 1 0.37 0.09 0 1 1.226 
220 1 0.39 0.09 0 1 1.226 
269 1 0.37 0.11 0 1 1.226 
270 1 0.39 0.11 0 1 1.226 
221 1 0.41 0.09 0 1 1.226 
271 1 0.41 0.11 0 1 1.226 
222 1 0.43 0.09 0 1 1.226 
223 1 0.45 0.09 0 1 1.226 
272 1 0.43 0.11 0 1 1.226 
273 1 0.45 0.11 0 1 1.226 
224 1 0.47 0.09 0 1 1.226 
274 1 0.47 0.11 0 1 1.226 
225 1 0.49 0.09 0 1 1.226 
226 2 0.51 0.09 0 2 1000 
275 1 0.49 0.11 0 1 1.226 
276 2 0.51 0.11 0 2 1000 
227 2 0.53 0.09 0 2 1000 
277 2 0.53 0.11 0 2 1000 
228 2 0.55 0.09 0 2 1000 
229 2 0.57 0.09 0 2 1000 
278 2 0.55 0.11 0 2 1000 
279 2 0.57 0.11 0 2 1000 
230 2 0.59 0.09 0 2 1000 
280 2 0.59 0.11 0 2 1000 
231 2 0.61 0.09 0 2 1000 
232 2 0.63 0.09 0 2 1000 
281 2 0.61 0.11 0 2 1000 
282 2 0.63 0.11 0 2 1000 
233 2 0.65 0.09 0 2 1000 
283 2 0.65 0.11 0 2 1000 
234 2 0.67 0.09 0 2 1000 
235 2 0.69 0.09 0 2 1000 
284 2 0.67 0.11 0 2 1000 
285 2 0.69 0.11 0 2 1000 
236 2 0.71 0.09 0 2 1000 
286 2 0.71 0.11 0 2 1000 
237 2 0.73 0.09 0 2 1000 
238 2 0.75 0.09 0 2 1000 
287 2 0.73 0.11 0 2 1000 
288 2 0.75 0.11 0 2 1000 
239 2 0.77 0.09 0 2 1000 
289 2 0.77 0.11 0 2 1000 
240 2 0.79 0.09 0 2 1000 
241 2 0.81 0.09 0 2 1000 
290 2 0.79 0.11 0 2 1000 
291 2 0.81 0.11 0 2 1000 
242 2 0.83 0.09 0 2 1000 
292 2 0.83 0.11 0 2 1000 
243 2 0.85 0.09 0 2 1000 
244 2 0.87 0.09 0 2 1000 
293 2 0.85 0.11 0 2 1000 
294 2 0.87 0.11 0 2 1000 
245 2 0.89 0.09 0 2 1000 
295 2 0.89 0.11 0 2 1000 
246 2 0.91 0.09 0 2 1000 
247 2 0.93 0.09 0 2 1000 
296 2 0.91 0.11 0 2 1000 
297 2 0.93 0.11 0 2 1000 
248 2 0.95 0.09 0 2 1000 
298 2 0.95 0.11 0 2 1000 
249 2 0.97 0.09 0 2 1000 
250 2 0.99 0.09 0 2 1000 
299 2 0.97 0.11 0 2 1000 
300 2 0.99 0.11 0 2 1000 
301 1 0.01 0.13 0 1 1.226 
302 1 0.03 0.13 0 1 1.226 
303 1 0.05 0.13 0 1 1.226 
304 1 0.07 0.13 0 1 1.226 
305 1 0.09 0.13 0 1 1.226 
306 1 0.11 0.13 0 1 1.226 
307 1 0.13 0.13 0 1 1.226 
308 1 0.15 0.13 0 1 1.226 
309 1 0.17 0.13 0 1 1.226 
310 1 0.19 0.13 0 1 1.226 
311 1 0.21 0.13 0 1 1.226 
312 1 0.23 0.13 0 1 1.226 
313 1 0.25 0.13 0 1 1.226 
314 1 0.27 0.13 0 1 1.226 
315 1 0.29 0.13 0 1 1.226 
316 1 0.31 0.13 0 1 1.226 
317 1 0.33 0.13 0 1 1.226 
318 1 0.35 0.13 0 1 1.226 
319 1 0.37 0.13 0 1 1.226 
320 1 0.39 0.13 0 1 1.226 
321 1 0.41 0.13 0 1 1.226 
322 1 0.43 0.13 0 1 1.226 
323 1 0.45 0.13 0 1 1.226 
324 1 0.47 0.13 0 1 1.226 
325 1 0.49 0.13 0 1 1.226 
326 2 0.51 0.13 0 2 1000 
327 2 0.53 0.13 0 2 1000 
328 2 0.55 0.13 0 2 1000 
329 2 0.57 0.13 0 2 1000 
330 2 0.59 0.13 0 2 1000 
331 2 0.61 0.13 0 2 1000 
332 2 0.63 0.13 0 2 1000 
333 2 0.65 0.13 0 2 1000 
334 2 0.67 0.13 0 2 1000 
335 2 0.69 0.13 0 2 1000 
336 2 0.71 0.13 0 2 1000 
337 2 0.73 0.13 0 2 1000 
338 2 0.75 0.13 0 2 1000 
339 2 0.77 0.13 0 2 1000 
340 2 0.79 0.13 0 2 1000 
341 2 0.81 0.13 0 2 1000 
342 2 0.83 0.13 0 2 1000 
343 2 0.85 0.13 0 2 1000 
344 2 0.87 0.13 0 2 1000 
345 2 0.89 0.13 0 2 1000 
346 2 0.91 0.13 0 2 1000 
347 2 0.93 0.13 0 2 1000 
348 2 0.95 0.13 0 2 1000 
349 2 0.97 0.13 0 2 1000 
350 2 0.99 0.13 0 2 1000 
351 1 0.01 0.15 0 1 1.226 
352 1 0.03 0.15 0 1 1.226 
401 1 0.01 0.17 0 1 1.226 
402 1 0.03 0.17 0 1 1.226 
353 1 0.05 0.15 0 1 1.226 
403 1 0.05 0.17 0 1 1.226 
354 1 0.07 0.15 0 1 1.226 
355 1 0.09 0.15 0 1 1.226 
404 1 0.07 0.17 0 1 1.226 
405 1 0.09 0.17 0 1 1.226 
356 1 0.11 0.15 0 1 1.226 
406 1 0.11 0.17 0 1 1.226 
357 1 0.13 0.15 0 1 1.226 
358 1 0.15 0.15 0 1 1.226 
407 1 0.13 0.17 0 1 1.226 
408 1 0.15 0.17 0 1 1.226 
359 1 0.17 0.15 0 1 1.226 
409 1 0.17 0.17 0 1 1.226 
360 1 0.19 0.15 0 1 1.226 
361 1 0.21 0.15 0 1 1.226 
410 1 0.19 0.17 0 1 1.226 
411 1 0.21 0.17 0 1 1.226 
362 1 0.23 0.15 0 1 1.226 
412 1 0.23 0.17 0 1 1.226 
363 1 0.25 0.15 0 1 1.226 
364 1 0.27 0.15 0 1 1.226 
413 1 0.25 0.17 0 1 1.226 
414 1 0.27 0.17 0 1 1.226 
365 1 0.29 0.15 0 1 1.226 
415 1 0.29 0.17 0 1 1.226 
366 1 0.31 0.15 0 1 1.226 
367 1 0.33 0.15 0 1 1.226 
416 1 0.31 0.17 0 1 1.226 
417 1 0.33 0.17 0 1 1.226 
368 1 0.35 0.15 0 1 1.226 
418 1 0.35 0.17 0 1 1.226 
369 1 0.37 0.15 0 1 1.226 
370 1 0.39 0.15 0 1 1.226 
419 1 0.37 0.17 0 1 1.226 
420 1 0.39 0.17 0 1 1.226 
371 1 0.41 0.15 0 1 1.226 
421 1 0.41 0.17 0 1 1.226 
372 1 0.43 0.15 0 1 1.226 
373 1 0.45 0.15 0 1 1.226 
422 1 0.43 0.17 0 1 1.226 
423 1 0.45 0.17 0 1 1.226 
374 1 0.47 0.15 0 1 1.226 
424 1 0.47 0.17 0 1 1.226 
375 1 0.49 0.15 0 1 1.226 
376 2 0.51 0.15 0 2 1000 
425 1 0.49 0.17 0 1 1.226 
426 2 0.51 0.17 0 2 1000 
377 2 0.53 0.15 0 2 1000 
427 2 0.53 0.17 0 2 1000 
378 2 0.55 0.15 0 2 1000 
379 2 0.57 0.15 0 2 1000 
428 2 0.55 0.17 0 2 1000 
429 2 0.57 0.17 0 2 1000 
380 2 0.59 0.15 0 2 1000 
430 2 0.59 0.17 0 2 1000 
381 2 0.61 0.15 0 2 1000 
382 2 0.63 0.15 0 2 1000 
431 2 0.61 0.17 0 2 1000 
432 2 0.63 0.17 0 2 1000 
383 2 0.65 0.15 0 2 1000 
433 2 0.65 0.17 0 2 1000 
384 2 0.67 0.15 0 2 1000 
385 2 0.69 0.15 0 2 1000 
434 2 0.67 0.17 0 2 1000 
435 2 0.69 0.17 0 2 1000 
386 2 0.71 0.15 0 2 1000 
436 2 0.71 0.17 0 2 1000 
387 2 0.73 0.15 0 2 1000 
388 2 0.75 0.15 0 2 1000 
437 2 0.73 0.17 0 2 1000 
438 2 0.75 0.17 0 2 1000 
389 2 0.77 0.15 0 2 1000 
439 2 0.77 0.17 0 2 1000 
390 2 0.79 0.15 0 2 1000 
391 2 0.81 0.15 0 2 1000 
440 2 0.79 0.17 0 2 1000 
441 2 0.81 0.17 0 2 1000 
392 2 0.83 0.15 0 2 1000 
442 2 0.83 0.17 0 2 1000 
393 2 0.85 0.15 0 2 1000 
394 2 0.87 0.15 0 2 1000 
443 2 0.85 0.17 0 2 1000 
444 2 0.87 0.17 0 2 1000 
395 2 0.89 0.15 0 2 1000 
445 2 0.89 0.17 0 2 1000 
396 2 0.91 0.15 0 2 1000 
397 2 0.93 0.15 0 2 1000 
446 2 0.91 0.17 0 2 1000 
447 2 0.93 0.17 0 2 1000 
398 2 0.95 0.15 0 2 1000 
448 2 0.95 0.17 0 2 1000 
399 2 0.97 0.15 0 2 1000 
400 2 0.99 0.15 0 2 1000 
449 2 0.97 0.17 0 2 1000 
450 2 0.99 0.17 0 2 1000 
451 1 0.01 0.19 0 1 1.226 
452 1 0.03 0.19 0 1 1.226 
453 1 0.05 0.19 0 1 1.226 
454 1 0.07 0.19 0 1 1.226 
455 1 0.09 0.19 0 1 1.226 
456 1 0.11 0.19 0 1 1.226 
457 1 0.13 0.19 0 1 1.226 
458 1 0.15 0.19 0 1 1.226 
459 1 0.17 0.19 0 1 1.226 
460 1 0.19 0.19 0 1 1.226 
461 1 0.21 0.19 0 1 1.226 
462 1 0.23 0.19 0 1 1.226 
463 1 0.25 0.19 0 1 1.226 
464 1 0.27 0.19 0 1 1.226 
465 1 0.29 0.19 0 1 1.226 
466 1 0.31 0.19 0 1 1.226 
467 1 0.33 0.19 0 1 1.226 
468 1 0.35 0.19 0 1 1.226 
469 1 0.37 0.19 0 1 1.226 
470 1 0.39 0.19 0 1 1.226 
471 1 0.41 0.19 0 1 1.226 
472 1 0.43 0.19 0 1 1.226 
473 1 0.45 0.19 0 1 1.226 
474 1 0.47 0.19 0 1 1.226 
475 1 0.49 0.19 0 1 1.226 
476 2 0.51 0.19 0 2 1000 
477 2 0.53 0.19 0 2 1000 
478 2 0.55 0.19 0 2 1000 
479 2 0.57 0.19 0 2 1000 
480 2 0.59 0.19 0 2 1000 
481 2 0.61 0.19 0 2 1000 
482 2 0.63 0.19 0 2 1000 
483 2 0.65 0.19 0 2 1000 
484 2 0.67 0.19 0 2 1000 
485 2 0.69 0.19 0 2 1000 
486 2 0.71 0.19 0 2 1000 
487 2 0.73 0.19 0 2 1000 
488 2 0.75 0.19 0 2 1000 
489 2 0.77 0.19 0 2 1000 
490 2 0.79 0.19 0 2 1000 
491 2 0.81 0.19 0 2 1000 
492 2 0.83 0.19 0 2 1000 
493 2 0.85 0.19 0 2 1000 
494 2 0.87 0.19 0 2 1000 
495 2 0.89 0.19 0 2 1000 
496 2 0.91 0.19 0 2 1000 
497 2 0.93 0.19 0 2 1000 
498 2 0.95 0.19 0 2 1000 
499 2 0.97 0.19 0 2 1000 
500 2 0.99 0.19 0 2 1000 
501 1 0.01 0.21 0 1 1.226 
502 1 0.03 0.21 0 1 1.226 
551 1 0.01 0.23 0 1 1.226 
552 1 0.03 0.23 0 1 1.226 
503 1 0.05 0.21 0 1 1.226 
553 1 0.05 0.23 0 1 1.226 
504 1 0.07 0.21 0 1 1.226 
505 1 0.09 0.21 0 1 1.226 
554 1 0.07 0.23 0 1 1.226 
555 1 0.09 0.23 0 1 1.226 
506 1 0.11 0.21 0 1 1.226 
556 1 0.11 0.23 0 1 1.226 
507 1 0.13 0.21 0 1 1.226 
508 1 0.15 0.21 0 1 1.226 
557 1 0.13 0.23 0 1 1.226 
558 1 0.15 0.23 0 1 1.226 
509 1 0.17 0.21 0 1 1.226 
559 1 0.17 0.23 0 1 1.226 
510 1 0.19 0.21 0 1 1.226 
511 1 0.21 0.21 0 1 1.226 
560 1 0.19 0.23 0 1 1.226 
561 1 0.21 0.23 0 1 1.226 
512 1 0.23 0.21 0 1 1.226 
562 1 0.23 0.23 0 1 1.226 
513 1 0.25 0.21 0 1 1.226 
514 1 0.27 0.21 0 1 1.226 
563 1 0.25 0.23 0 1 1.226 
564 1 0.27 0.23 0 1 1.226 
515 1 0.29 0.21 0 1 1.226 
565 1 0.29 0.23 0 1 1.226 
516 1 0.31 0.21 0 1 1.226 
517 1 0.33 0.21 0 1 1.226 
566 1 0.31 0.23 0 1 1.226 
567 1 0.33 0.23 0 1 1.226 
518 1 0.35 0.21 0 1 1.226 
568 1 0.35 0.23 0 1 1.226 
519 1 0.37 0.21 0 1 1.226 
520 1 0.39 0.21 0 1 1.226 
569 1 0.37 0.23 0 1 1.226 
570 1 0.39 0.23 0 1 1.226 
521 1 0.41 0.21 0 1 1.226 
571 1 0.41 0.23 0 1 1.226 
522 1 0.43 0.21 0 1 1.226 
523 1 0.45 0.21 0 1 1.226 
572 1 0.43 0.23 0 1 1.226 
573 1 0.45 0.23 0 1 1.226 
524 1 0.47 0.21 0 1 1.226 
574 1 0.47 0.23 0 1 1.226 
525 1 0.49 0.21 0 1 1.226 
526 2 0.51 0.21 0 2 1000 
575 1 0.49 0.23 0 1 1.226 
576 2 0.51 0.23 0 2 1000 
527 2 0.53 0.21 0 2 1000 
577 2 0.53 0.23 0 2 1000 
528 2 0.55 0.21 0 2 1000 
529 2 0.57 0.21 0 2 1000 
578 2 0.55 0.23 0 2 1000 
579 2 0.57 0.23 0 2 1000 
530 2 0.59 0.21 0 2 1000 
580 2 0.59 0.23 0 2 1000 
531 2 0.61 0.21 0 2 1000 
532 2 0.63 0.21 0 2 1000 
581 2 0.61 0.23 0 2 1000 
582 2 0.63 0.23 0 2 1000 
533 2 0.65 0.21 0 2 1000 
583 2 0.65 0.23 0 2 1000 
534 2 0.67 0.21 0 2 1000 
535 2 0.69 0.21 0 2 1000 
584 2 0.67 0.23 0 2 1000 
585 2 0.69 0.23 0 2 1000 
536 2 0.71 0.21 0 2 1000 
586 2 0.71 0.23 0 2 1000 
537 2 0.73 0.21 0 2 1000 
538 2 0.75 0.21 0 2 1000 
587 2 0.73 0.23 0 2 1000 
588 2 0.75 0.23 0 2 1000 
539 2 0.77 0.21 0 2 1000 
589 2 0.77 0.23 0 2 1000 
540 2 0.79 0.21 0 2 1000 
541 2 0.81 0.21 0 2 1000 
590 2 0.79 0.23 0 2 1000 
591 2 0.81 0.23 0 2 1000 
542 2 0.83 0.21 0 2 1000 
592 2 0.83 0.23 0 2 1000 
543 2 0.85 0.21 0 2 1000 
544 2 0.87 0.21 0 2 1000 
593 2 0.85 0.23 0 2 1000 
594 2 0.87 0.23 0 2 1000 
545 2 0.89 0.21 0 2 1000 
595 2 0.89 0.23 0 2 1000 
546 2 0.91 0.21 0 2 1000 
547 2 0.93 0.21 0 2 1000 
596 2 0.91 0.23 0 2 1000 
597 2 0.93 0.23 0 2 1000 
548 2 0.95 0.21 0 2 1000 
598 2 0.95 0.23 0 2 1000 
549 2 0.97 0.21 0 2 1000 
550 2 0.99 0.21 0 2 1000 
599 2 0.97 0.23 0 2 1000 
600 2 0.99 0.23 0 2 1000 
601 1 0.01 0.25 0 1 1.226 
602 1 0.03 0.25 0 1 1.226 
603 1 0.05 0.25 0 1 1.226 
604 1 0.07 0.25 0 1 1.226 
605 1 0.09 0.25 0 1 1.226 
606 1 0.11 0.25 0 1 1.226 
607 1 0.13 0.25 0 1 1.226 
608 1 0.15 0.25 0 1 1.226 
609 1 0.17 0.25 0 1 1.226 
610 1 0.19 0.25 0 1 1.226 
611 1 0.21 0.25 0 1 1.226 
612 1 0.23 0.25 0 1 1.226 
613 1 0.25 0.25 0 1 1.226 
614 1 0.27 0.25 0 1 1.226 
615 1 0.29 0.25 0 1 1.226 
616 1 0.31 0.25 0 1 1.226 
617 1 0.33 0.25 0 1 1.226 
618 1 0.35 0.25 0 1 1.226 
619 1 0.37 0.25 0 1 1.226 
620 1 0.39 0.25 0 1 1.226 
621 1 0.41 0.25 0 1 1.226 
622 1 0.43 0.25 0 1 1.226 
623 1 0.45 0.25 0 1 1.226 
624 1 0.47 0.25 0 1 1.226 
625 1 0.49 0.25 0 1 1.226 
626 2 0.51 0.25 0 2 1000 
627 2 0.53 0.25 0 2 1000 
628 2 0.55 0.25 0 2 1000 
629 2 0.57 0.25 0 2 1000 
630 2 0.59 0.25 0 2 1000 
631 2 0.61 0.25 0 2 1000 
632 2 0.63 0.25 0 2 1000 
633 2 0.65 0.25 0 2 1000 
634 2 0.67 0.25 0 2 1000 
635 2 0.69 0.25 0 2 1000 
636 2 0.71 0.25 0 2 1000 
637 2 0.73 0.25 0 2 1000 
638 2 0.75 0.25 0 2 1000 
639 2 0.77 0.25 0 2 1000 
640 2 0.79 0.25 0 2 1000 
641 2 0.81 0.25 0 2 1000 
642 2 0.83 0.25 0 2 1000 
643 2 0.85 0.25 0 2 1000 
644 2 0.87 0.25 0 2 1000 
645 2 0.89 0.25 0 2 1000 
646 2 0.91 0.25 0 2 1000 
647 2 0.93 0.25 0 2 1000 
648 2 0.95 0.25 0 2 1000 
649 2 0.97 0.25 0 2 1000 
650 2 0.99 0.25 0 2 1000 
651 1 0.01 0.27 0 1 1.226 
652 1 0.03 0.27 0 1 1.226 
701 1 0.01 0.29 0 1 1.226 
702 1 0.03 0.29 0 1 1.226 
653 1 0.05 0.27 0 1 1.226 
703 1 0.05 0.29 0 1 1.226 
654 1 0.07 0.27 0 1 1.226 
655 1 0.09 0.27 0 1 1.226 
704 1 0.07 0.29 0 1 1.226 
705 1 0.09 0.29 0 1 1.226 
656 1 0.11 0.27 0 1 1.226 
706 1 0.11 0.29 0 1 1.226 
657 1 0.13 0.27 0 1 1.226 
658 1 0.15 0.27 0 1 1.226 
707 1 0.13 0.29 0 1 1.226 
708 1 0.15 0.29 0 1 1.226 
659 1 0.17 0.27 0 1 1.226 
709 1 0.17 0.29 0 1 1.226 
660 1 0.19 0.27 0 1 1.226 
661 1 0.21 0.27 0 1 1.226 
710 1 0.19 0.29 0 1 1.226 
711 1 0.21 0.29 0 1 1.226 
662 1 0.23 0.27 0 1 1.226 
712 1 0.23 0.29 0 1 1.226 
663 1 0.25 0.27 0 1 1.226 
664 1 0.27 0.27 0 1 1.226 
713 1 0.25 0.29 0 1 1.226 
714 1 0.27 0.29 0 1 1.226 
665 1 0.29 0.27 0 1 1.226 
715 1 0.29 0.29 0 1 1.226 
666 1 0.31 0.27 0 1 1.226 
667 1 0.33 0.27 0 1 1.226 
716 1 0.31 0.29 0 1 1.226 
717 1 0.33 0.29 0 1 1.226 
668 1 0.35 0.27 0 1 1.226 
718 1 0.35 0.29 0 1 1.226 
669 1 0.37 0.27 0 1 1.226 
670 1 0.39 0.27 0 1 1.226 
719 1 0.37 0.29 0 1 1.226 
720 1 0.39 0.29 0 1 1.226 
671 1 0.41 0.27 0 1 1.226 
721 1 0.41 0.29 0 1 1.226 
672 1 0.43 0.27 0 1 1.226 
673 1 0.45 0.27 0 1 1.226 
722 1 0.43 0.29 0 1 1.226 
723 1 0.45 0.29 0 1 1.226 
674 1 0.47 0.27 0 1 1.226 
724 1 0.47 0.29 0 1 1.226 
675 1 0.49 0.27 0 1 1.226 
676 2 0.51 0.27 0 2 1000 
725 1 0.49 0.29 0 1 1.226 
726 2 0.51 0.29 0 2 1000 
677 2 0.53 0.27 0 2 1000 
727 2 0.53 0.29 0 2 1000 
678 2 0.55 0.27 0 2 1000 
679 2 0.57 0.27 0 2 1000 
728 2 0.55 0.29 0 2 1000 
729 2 0.57 0.29 0 2 1000 
680 2 0.59 0.27 0 2 1000 
730 2 0.59 0.29 0 2 1000 
681 2 0.61 0.27 0 2 1000 
682 2 0.63 0.27 0 2 1000 
731 2 0.61 0.29 0 2 1000 
732 2 0.63 0.29 0 2 1000 
683 2 0.65 0.27 0 2 1000 
733 2 0.65 0.29 0 2 1000 
684 2 0.67 0.27 0 2 1000 
685 2 0.69 0.27 0 2 1000 
734 2 0.67 0.29 0 2 1000 
735 2 0.69 0.29 0 2 1000 
686 2 0.71 0.27 0 2 1000 
736 2 0.71 0.29 0 2 1000 
687 2 0.73 0.27 0 2 1000 
688 2 0.75 0.27 0 2 1000 
737 2 0.73 0.29 0 2 1000 
738 2 0.75 0.29 0 2 1000 
689 2 0.77 0.27 0 2 1000 
739 2 0.77 0.29 0 2 1000 
690 2 0.79 0.27 0 2 1000 
691 2 0.81 0.27 0 2 1000 
740 2 0.79 0.29 0 2 1000 
741 2 0.81 0.29 0 2 1000 
692 2 0.83 0.27 0 2 1000 
742 2 0.83 0.29 0 2 1000 
693 2 0.85 0.27 0 2 1000 
694 2 0.87 0.27 0 2 1000 
743 2 0.85 0.29 0 2 1000 
744 2 0.87 0.29 0 2 1000 
695 2 0.89 0.27 0 2 1000 
745 2 0.89 0.29 0 2 1000 
696 2 0.91 0.27 0 2 1000 
697 2 0.93 0.27 0 2 1000 
746 2 0.91 0.29 0 2 1000 
747 2 0.93 0.29 0 2 1000 
698 2 0.95 0.27 0 2 1000 
748 2 0.95 0.29 0 2 1000 
699 2 0.97 0.27 0 2 1000 
700 2 0.99 0.27 0 2 1000 
749 2 0.97 0.29 0 2 1000 
750 2 0.99 0.29 0 2 1000 
ITEM: TIMESTEP
10
ITEM: NUMBER OF ATOMS
750
ITEM: BOX BOUNDS ff pp pp
0.0000000000000000e+00 1.0000000000000000e+00
0.0000000000000000e+00 2.9999999999999999e-01
0.0000000000000000e+00 2.0000000000000000e-02
ITEM: ATOMS id type x y z c_it_atom c_rho_peratom 
1 1 0.01 0.01 0 1 1.226 
2 1 0.03 0.01 0 1 1.226 
3 1 0.05 0.01 0 1 1.226 
4 1 0.07 0.01 0 1.00244 1.226 
5 1 0.09 0.01 0 1.05806 1.226 
6 1 0.11 0.01 0 0.979196 1.226 
7 1 0.13 0.01 0 0.989433 1.226 
8 1 0.15 0.01 0 0.956499 1.226 
9 1 0.17 0.01 0 1.02983 1.226 
10 1 0.19 0.01 0 0.945515 1.226 
11 1 0.21 0.01 0 0.967193 1.226 
12 1 0.23 0.01 0 0.954659 1.226 
13 1 0.25 0.01 0 0.950377 1.226 
14 1 0.27 0.01 0 0.961651 1.226 
15 1 0.29 0.01 0 1.0477 1.226 
16 1 0.31 0.01 0 0.964656 1.226 
17 1 0.33 0.01 0 1.05714 1.226 
18 1 0.35 0.01 0 0.999649 1.226 
19 1 0.37 0.01 0 1.09748 1.226 
20 1 0.39 0.01 0 1.04 1.226 
21 1 0.41 0.01 0 1.33595 1.226 
22 1 0.43 0.01 0 1.36733 1.226 
23 1 0.45 0.01 0 1.48764 1.226 
24 1 0.47 0.01 0 1.72908 1.226 
25 1 0.49 0.01 0 2.00943 1.226 
26 2 0.51 0.01 0 1.99916 1000 
27 2 0.53 0.01 0 1.99994 1000 
28 2 0.55 0.01 0 2 1000 
29 2 0.57 0.01 0 2 1000 
30 2 0.59 0.01 0 2 1000 
31 2 0.61 0.01 0 2 1000 
32 2 0.63 0.01 0 2 1000 
33 2 0.65 0.01 0 2 1000 
34 2 0.67 0.01 0 2 1000 
35 2 0.69 0.01 0 2 1000 
36 2 0.71 0.01 0 2 1000 
37 2 0.73 0.01 0 2 1000 
38 2 0.75 0.01 0 2 1000 
39 2 0.77 0.01 0 2 1000 
40 2 0.79 0.01 0 2 1000 
41 2 0.81 0.01 0 2 1000 
42 2 0.83 0.01 0 2 1000 
43 2 0.85 0.01 0 2 1000 
44 2 0.87 0.01 0 2 1000 
45 2 0.89 0.01 0 2 1000 
46 2 0.91 0.01 0 2 1000 
47 2 0.93 0.01 0 2 1000 
48 2 0.95 0.01 0 2 1000 
49 2 0.97 0.01 0 2 1000 
50 2 0.99 0.01 0 2 1000 
51 1 0.01 0.03 0 1 1.226 
52 1 0.03 0.03 0 1 1.226 
101 1 0.01 0.05 0 1 1.226 
102 1 0.03 0.05 0 1 1.226 
53 1 0.05 0.03 0 1 1.226 
103 1 0.05 0.05 0 1 1.226 
54 1 0.07 0.03 0 1.00244 1.226 
55 1 0.09 0.03 0 1.05806 1.226 
104 1 0.07 0.05 0 1.00244 1.226 
105 1 0.09 0.05 0 1.05806 1.226 
56 1 0.11 0.03 0 1.0444 1.226 
106 1 0.11 0.05 0 1.04288 1.226 
57 1 0.13 0.03 0 1.02312 1.226 
58 1 0.15 0.03 0 1.07802 1.226 
107 1 0.13 0.05 0 0.950697 1.226 
108 1 0.15 0.05 0 0.959578 1.226 
59 1 0.17 0.03 0 0.953254 1.226 
109 1 0.17 0.05 0 1.00422 1.226 
60 1 0.19 0.03 0 0.990509 1.226 
61 1 0.21 0.03 0 1.055 1.226 
110 1 0.19 0.05 0 0.974317 1.226 
111 1 0.21 0.05 0 1.05663 1.226 
62 1 0.23 0.03 0 1.04512 1.226 
112 1 0.23 0.05 0 0.960776 1.226 
63 1 0.25 0.03 0 0.935341 1.226 
64 1 0.27 0.03 0 0.97013 1.226 
113 1 0.25 0.05 0 1.05126 1.226 
114 1 0.27 0.05 0 0.954899 1.226 
65 1 0.29 0.03 0 1.04333 1.226 
115 1 0.29 0.05 0 1.04669 1.226 
66 1 0.31 0.03 0 0.930556 1.226 
67 1 0.33 0.03 0 0.957625 1.226 
116 1 0.31 0.05 0 1.05238 1.226 
117 1 0.33 0.05 0 1.0413 1.226 
68 1 0.35 0.03 0 0.973634 1.226 
118 1 0.35 0.05 0 1.01887 1.226 
69 1 0.37 0.03 0 1.0902 1.226 
70 1 0.39 0.03 0 1.14716 1.226 
119 1 0.37 0.05 0 1.07228 1.226 
120 1 0.39 0.05 0 1.14441 1.226 
71 1 0.41 0.03 0 1.1137 1.226 
121 1 0.41 0.05 0 1.15633 1.226 
72 1 0.43 0.03 0 1.26338 1.226 
73 1 0.45 0.03 0 1.49167 1.226 
122 1 0.43 0.05 0 1.32204 1.226 
123 1 0.45 0.05 0 1.49014 1.226 
74 1 0.47 0.03 0 1.80222 1.226 
124 1 0.47 0.05 0 1.66186 1.226 
75 1 0.49 0.03 0 2.15527 1.226 
76 2 0.51 0.03 0 1.99918 1000 
125 1 0.49 0.05 0 2.03989 1.226 
126 2 0.51 0.05 0 1.99917 1000 
77 2 0.53 0.03 0 1.99994 1000 
127 2 0.53 0.05 0 1.99994 1000 
78 2 0.55 0.03 0 2 1000 
79 2 0.57 0.03 0 2 1000 
128 2 0.55 0.05 0 2 1000 
129 2 0.57 0.05 0 2 1000 
80 2 0.59 0.03 0 2 1000 
130 2 0.59 0.05 0 2 1000 
81 2 0.61 0.03 0 2 1000 
82 2 0.63 0.03 0 2 1000 
131 2 0.61 0.05 0 2 1000 
132 2 0.63 0.05 0 2 1000 
83 2 0.65 0.03 0 2 1000 
133 2 0.65 0.05 0 2 1000 
84 2 0.67 0.03 0 2 1000 
85 2 0.69 0.03 0 2 1000 
134 2 0.67 0.05 0 2 1000 
135 2 0.69 0.05 0 2 1000 
86 2 0.71 0.03 0 2 1000 
136 2 0.71 0.05 0 2 1000 
87 2 0.73 0.03 0 2 1000 
88 2 0.75 0.03 0 2 1000 
137 2 0.73 0.05 0 2 1000 
138 2 0.75 0.05 0 2 1000 
89 2 0.77 0.03 0 2 1000 
139 2 0.77 0.05 0 2 1000 
90 2 0.79 0.03 0 2 1000 
91 2 0.81 0.03 0 2 1000 
140 2 0.79 0.05 0 2 1000 
141 2 0.81 0.05 0 2 1000 
92 2 0.83 0.03 0 2 1000 
142 2 0.83 0.05 0 2 1000 
93 2 0.85 0.03 0 2 1000 
94 2 0.87 0.03 0 2 1000 
143 2 0.85 0.05 0 2 1000 
144 2 0.87 0.05 0 2 1000 
95 2 0.89 0.03 0 2 1000 
145 2 0.89 0.05 0 2 1000 
96 2 0.91 0.03 0 2 1000 
97 2 0.93 0.03 0 2 1000 
146 2 0.91 0.05 0 2 1000 
147 2 0.93 0.05 0 2 1000 
98 2 0.95 0.03 0 2 1000 
148 2 0.95 0.05 0 2 1000 
99 2 0.97 0.03 0 2 1000 
100 2 0.99 0.03 0 2 1000 
149 2 0.97 0.05 0 2 1000 
150 2 0.99 0.05 0 2 1000 
151 1 0.01 0.07 0 1 1.226 
152 1 0.03 0.07 0 1 1.226 
153 1 0.05 0.07 0 1 1.226 
154 1 0.07 0.07 0 1.00244 1.226 
155 1 0.09 0.07 0 1.05806 1.226 
156 1 0.11 0.07 0 0.948868 1.226 
157 1 0.13 0.07 0 0.950697 1.226 
158 1 0.15 0.07 0 1.01963 1.226 
159 1 0.17 0.07 0 0.97512 1.226 
160 1 0.19 0.07 0 0.983732 1.226 
161 1 0.21 0.07 0 0.992291 1.226 
162 1 0.23 0.07 0 1.02774 1.226 
163 1 0.25 0.07 0 0.982362 1.226 
164 1 0.27 0.07 0 1.03162 1.226 
165 1 0.29 0.07 0 0.953301 1.226 
166 1 0.31 0.07 0 0.941744 1.226 
167 1 0.33 0.07 0 1.02857 1.226 
168 1 0.35 0.07 0 1.13974 1.226 
169 1 0.37 0.07 0 1.06478 1.226 
170 1 0.39 0.07 0 1.07578 1.226 
171 1 0.41 0.07 0 1.14181 1.226 
172 1 0.43 0.07 0 1.27207 1.226 
173 1 0.45 0.07 0 1.40489 1.226 
174 1 0.47 0.07 0 1.82351 1.226 
175 1 0.49 0.07 0 2.21985 1.226 
176 2 0.51 0.07 0 1.99916 1000 
177 2 0.53 0.07 0 1.99994 1000 
178 2 0.55 0.07 0 2 1000 
179 2 0.57 0.07 0 2 1000 
180 2 0.59 0.07 0 2 1000 
181 2 0.61 0.07 0 2 1000 
182 2 0.63 0.07 0 2 1000 
183 2 0.65 0.07 0 2 1000 
184 2 0.67 0.07 0 2 1000 
185 2 0.69 0.07 0 2 1000 
186 2 0.71 0.07 0 2 1000 
187 2 0.73 0.07 0 2 1000 
188 2 0.75 0.07 0 2 1000 
189 2 0.77 0.07 0 2 1000 
190 2 0.79 0.07 0 2 1000 
191 2 0.81 0.07 0 2 1000 
192 2 0.83 0.07 0 2 1000 
193 2 0.85 0.07 0 2 1000 
194 2 0.87 0.07 0 2 1000 
195 2 0.89 0.07 0 2 1000 
196 2 0.91 0.07 0 2 1000 
197 2 0.93 0.07 0 2 1000 
198 2 0.95 0.07 0 2 1000 
199 2 0.97 0.07 0 2 1000 
200 2 0.99 0.07 0 2 1000 
201 1 0.01 0.09 0 1 1.226 
202 1 0.03 0.09 0 1 1.226 
251 1 0.01 0.11 0 1 1.226 
252 1 0.03 0.11 0 1 1.226 
203 1 0.05 0.09 0 1 1.226 
253 1 0.05 0.11 0 1 1.226 
204 1 0.07 0.09 0 1.00244 1.226 
205 1 0.09 0.09 0 1.05806 1.226 
254 1 0.07 0.11 0 1.00244 1.226 
255 1 0.09 0.11 0 1.05806 1.226 
206 1 0.11 0.09 0 1.07169 1.226 
256 1 0.11 0.11 0 0.950374 1.226 
207 1 0.13 0.09 0 1.02312 1.226 
208 1 0.15 0.09 0 1.02006 1.226 
257 1 0.13 0.11 0 0.989433 1.226 
258 1 0.15 0.11 0 1.08051 1.226 
209 1 0.17 0.09 0 0.979528 1.226 
259 1 0.17 0.11 0 1.0094 1.226 
210 1 0.19 0.09 0 0.969638 1.226 
211 1 0.21 0.09 0 1.07031 1.226 
260 1 0.19 0.11 0 0.988866 1.226 
261 1 0.21 0.11 0 0.964117 1.226 
212 1 0.23 0.09 0 0.983377 1.226 
262 1 0.23 0.11 0 1.00694 1.226 
213 1 0.25 0.09 0 0.998997 1.226 
214 1 0.27 0.09 0 0.964146 1.226 
263 1 0.25 0.11 0 1.00048 1.226 
264 1 0.27 0.11 0 1.05657 1.226 
215 1 0.29 0.09 0 1.06345 1.226 
265 1 0.29 0.11 0 1.07463 1.226 
216 1 0.31 0.09 0 1.05712 1.226 
217 1 0.33 0.09 0 0.962836 1.226 
266 1 0.31 0.11 0 0.953908 1.226 
267 1 0.33 0.11 0 1.05499 1.226 
218 1 0.35 0.09 0 0.991413 1.226 
268 1 0.35 0.11 0 0.979674 1.226 
219 1 0.37 0.09 0 0.99969 1.226 
220 1 0.39 0.09 0 1.11007 1.226 
269 1 0.37 0.11 0 1.05383 1.226 
270 1 0.39 0.11 0 1.07945 1.226 
221 1 0.41 0.09 0 1.11493 1.226 
271 1 0.41 0.11 0 1.1049 1.226 
222 1 0.43 0.09 0 1.2654 1.226 
223 1 0.45 0.09 0 1.6261 1.226 
272 1 0.43 0.11 0 1.32139 1.226 
273 1 0.45 0.11 0 1.5644 1.226 
224 1 0.47 0.09 0 1.87539 1.226 
274 1 0.47 0.11 0 1.6368 1.226 
225 1 0.49 0.09 0 2.14963 1.226 
226 2 0.51 0.09 0 1.99918 1000 
275 1 0.49 0.11 0 2.04054 1.226 
276 2 0.51 0.11 0 1.99917 1000 
227 2 0.53 0.09 0 1.99994 1000 
277 2 0.53 0.11 0 1.99994 1000 
228 2 0.55 0.09 0 2 1000 
229 2 0.57 0.09 0 2 1000 
278 2 0.55 0.11 0 2 1000 
279 2 0.57 0.11 0 2 1000 
230 2 0.59 0.09 0 2 1000 
280 2 0.59 0.11 0 2 1000 
231 2 0.61 0.09 0 2 1000 
232 2 0.63 0.09 0 2 1000 
281 2 0.61 0.11 0 2 1000 
282 2 0.63 0.11 0 2 1000 
233 2 0.65 0.09 0 2 1000 
283 2 0.65 0.11 0 2 1000 
234 2 0.67 0.09 0 2 1000 
235 2 0.69 0.09 0 2 1000 
284 2 0.67 0.11 0 2 1000 
285 2 0.69 0.11 0 2 1000 
236 2 0.71 0.09 0 2 1000 
286 2 0.71 0.11 0 2 1000 
237 2 0.73 0.09 0 2 1000 
238 2 0.75 0.09 0 2 1000 
287 2 0.73 0.11 0 2 1000 
288 2 0.75 0.11 0 2 1000 
239 2 0.77 0.09 0 2 1000 
289 2 0.77 0.11 0 2 1000 
240 2 0.79 0.09 0 2 1000 
241 2 0.81 0.09 0 2 1000 
290 2 0.79 0.11 0 2 1000 
291 2 0.81 0.11 0 2 1000 
242 2 0.83 0.09 0 2 1000 
292 2 0.83 0.11 0 2 1000 
243 2 0.85 0.09 0 2 1000 
244 2 0.87 0.09 0 2 1000 
293 2 0.85 0.11 0 2 1000 
294 2 0.87 0.11 0 2 1000 
245 2 0.89 0.09 0 2 1000 
295 2 0.89 0.11 0 2 1000 
246 2 0.91 0.09 0 2 1000 
247 2 0.93 0.09 0 2 1000 
296 2 0.91 0.11 0 2 1000 
297 2 0.93 0.11 0 2 1000 
248 2 0.95 0.09 0 2 1000 
298 2 0.95 0.11 0 2 1000 
249 2 0.97 0.09 0 2 1000 
250 2 0.99 0.09 0 2 1000 
299 2 0.97 0.11 0 2 1000 
300 2 0.99 0.11 0 2 1000 
301 1 0.01 0.13 0 1 1.226 
302 1 0.03 0.13 0 1 1.226 
303 1 0.05 0.13 0 1 1.226 
304 1 0.07 0.13 0 1.00244 1.226 
305 1 0.09 0.13 0 1.05806 1.226 
306 1 0.11 0.13 0 1.0732 1.226 
307 1 0.13 0.13 0 0.987751 1.226 
308 1 0.15 0.13 0 0.956346 1.226 
309 1 0.17 0.13 0 0.99231 1.226 
310 1 0.19 0.13 0 0.931774 1.226 
311 1 0.21 0.13 0 1.00997 1.226 
312 1 0.23 0.13 0 0.982332 1.226 
313 1 0.25 0.13 0 0.940752 1.226 
314 1 0.27 0.13 0 0.957491 1.226 
315 1 0.29 0.13 0 0.996301 1.226 
316 1 0.31 0.13 0 0.919213 1.226 
317 1 0.33 0.13 0 0.953499 1.226 
318 1 0.35 0.13 0 1.00925 1.226 
319 1 0.37 0.13 0 1.01677 1.226 
320 1 0.39 0.13 0 1.03499 1.226 
321 1 0.41 0.13 0 1.10268 1.226 
322 1 0.43 0.13 0 1.2719 1.226 
323 1 0.45 0.13 0 1.57276 1.226 
324 1 0.47 0.13 0 1.75353 1.226 
325 1 0.49 0.13 0 2.12837 1.226 
326 2 0.51 0.13 0 1.99916 1000 
327 2 0.53 0.13 0 1.99994 1000 
328 2 0.55 0.13 0 2 1000 
329 2 0.57 0.13 0 2 1000 
330 2 0.59 0.13 0 2 1000 
331 2 0.61 0.13 0 2 1000 